material_0,initial CN(%),initial moisture content(%),initial pH,material_1,Excipients,initial TN(%),initial TC(%),Additive Species,NH3-N loss (%)
Manure,15.0,65.0,7.60664,Swine manure,,2.66,39.9,,28.0
Manure,,,7.41084,Swine manure,,,,Chemical,9.0
Manure,,,6.61538,Swine manure,,,,Chemical,4.0
Manure,,,6.40734,Swine manure,,,,Chemical,0.5
Manure,13.2113821138211,65.0,6.49842,Swine manure,,2.46,32.5,,3.0
Manure,10.9563636363636,,7.2,Swine manure,,2.75,30.13,Physical,4.6
Manure,11.1533546325879,,6.1,Swine manure,,3.13,34.91,Physical,2.1
Manure,9.83606557377049,,6.2,Swine manure,,3.05,30.0,Physical,0.3
Manure,,65.0,7.13744,Swine manure,,2.46,32.7,,22.7
Manure,,,,Swine manure,,,,Biological,14.5
Manure,,,,Swine manure,,,,Biological,16.1
Manure,,,,Swine manure,,,,Biological,16.4
Manure,12.6461242788792,60.0,7.29412,Poultry manure,,2.98667,37.7698,,5.6
Manure,13.551724137931,58.3,7.3,Poultry manure,,2.9,39.3,Physical,2.3
Manure,11.9375,59.0,7.36,Poultry manure,,3.2,38.2,Physical,2.3
Food waste,32.0,55.0,6.37,,,1.390625,44.5,,23.3852839506173
Food waste,,,6.3,,,,,Physical,23.9757037037037
Food waste,,,6.2,,,,,Physical,17.7668938271605
Food waste,22.122905027933,60.0,5.01,,,1.79,39.6,,13.3
Food waste,,,4.43,,,,,Physical,8.4
Food waste,,,4.28,,,,,Physical,10.5
Food waste,18.5,,,,,,,,22.0
Food waste,,,,,,,,Chemical,4.8
Manure,,67.3,7.94,Swine manure,,2.7,,,9.2
Manure,,,7.62,Swine manure,,,,Chemical,6.9
Manure,24.8,52.2,8.56364,Swine manure,,2.23,41.3,,38.7
Manure,,,8.08636,Swine manure,,,,Chemical,17.9
Manure,17.8341013824885,,7.84967,Swine manure,,2.17,38.7,,29.1
Manure,,,7.85621,Swine manure,,,,Physical,22.8
Sewage sludge,11.0,69.0,,,,3.7,40.7,,12.7371273712737
Sewage sludge,16.7,65.0,,,,2.93413173652695,49.0,Physical,9.18367346938776
Sewage sludge,14.0,67.0,,,,3.24285714285714,45.4,Physical,9.50920245398773
Sewage sludge,,68.0,,,,,,,21.16
Sewage sludge,,69.0,,,,,,Physical,14.44
Sewage sludge,,58.0,,,,,,Physical,10.24
Sewage sludge,,60.5,,,,,,Physical,37.21
Sewage sludge,,60.0,,,,,,Physical,16.81
Sewage sludge,,49.0,,,,,,Physical,11.56
Manure,20.8,,8.22764,Swine manure,,,,,23.2
Manure,,,8.11382,Swine manure,,,,Chemical,9.6
Manure,,,6.7,Swine manure,,,,Chemical,7.1
Manure,,,7.73984,Swine manure,,,,Chemical,8.46
Manure,,,6.82927,Swine manure,,,,Chemical,5.45
Manure,16.5,61.8,6.33716,Swine manure,,2.88,47.52,,34.9
Manure,,,6.18213,Swine manure,,,,Chemical,15.0
Manure,20.3000023678166,70.4,7.25,Swine manure,,2.11165,42.8665,,31.32
Manure,,,7.82843,Swine manure,,,,Chemical,21.79
Manure,,,7.86275,Swine manure,,,,Chemical,14.21
Manure,,64.6,7.4,Swine manure,,2.34,,,9.7
Manure,,,,Swine manure,,,,Biological,9.8
Manure,,,7.94846,Swine manure,,2.44843,,Physical,2.13
Manure,,,7.51769,Swine manure,,2.50053,,Physical,5.74
Sewage sludge,16.6428571428571,61.7,5.7,,,2.8,46.6,,19.6
Sewage sludge,,,4.8,,,,,Chemical,7.0
Manure,26.0,70.0,8.8,Cow manure,,1.59,41.34,,19.0158
Manure,,,8.8,Cow manure,,1.44,,Physical,10.6606
Manure,,,8.6,Cow manure,,1.55,,Physical,10.943
Manure,30.0,,8.7,Cow manure,,1.36,40.8,Physical,8.5426
Manure,25.0,,8.6,Cow manure,,1.59,39.75,,16.6
Manure,25.0,,8.6,Cow manure,,1.57,39.25,Chemical,15.2
Manure,25.0,,8.6,Cow manure,,1.55,38.75,Chemical,12.7
Manure,25.0,,8.9,Cow manure,,1.55,38.75,Chemical,14.9
Manure,25.0,,9.1,Cow manure,,1.62,40.5,,15.3
Manure,25.0,,9.0,Cow manure,,1.35,33.75,Chemical,17.0
Manure,25.0,,8.7,Cow manure,,1.31,32.75,Chemical,11.9
Manure,25.0,,8.7,Cow manure,,1.25,31.25,Chemical,11.9
Manure,18.54,,,Swine manure,,2.1,38.934,,35.3
Manure,,,,Swine manure,,,,Physical,28.0
Manure,,,,Swine manure,,,,Physical,21.2
Manure,,,,Swine manure,,,,Physical,16.8
Manure,,,,Swine manure,,,,Physical,14.8
Manure,,,,Swine manure,,,,Physical,8.3
Manure,6.1,71.0,6.8,Poultry manure,,5.77049180327869,35.2,,26.4509518773136
Manure,12.2,65.0,6.95,Poultry manure,,3.99180327868852,48.7,Physical,21.6371014492754
Manure,,,,Poultry manure,,,,,17.6463688788975
Manure,,,,Poultry manure,,,,Physical,16.4352550558406
Sewage sludge,,58.2,7.7,,,,,,33.9
Sewage sludge,,,5.52688,,,,,Chemical,16.455
Sewage sludge,,,6.33333,,,,,Chemical,21.6259069767442
Manure,31.0,55.0,7.7,Poultry manure,,1.07741935483871,33.4,,18.0
Manure,29.0,55.0,7.7,Poultry manure,,1.12068965517241,32.5,Physical,5.6
Food waste,20.0,,6.23506,,,1.9,38.0,,24.9
Food waste,,,4.81275,,,,,Chemical,12.6
Food waste,,,4.42231,,,,,Physical,15.3
Food waste,,,5.6,,,,,Chemical,8.9
Food waste,26.4,70.0,6.3,,,1.73,45.6,,16.5467
Food waste,,,,,,1.73,,Biological,12.879
Food waste,,,6.2,,,1.61,,Chemical,2.9862
Manure,26.0,58.1,8.38,Swine manure,,1.8680998,48.5705948,,33.01
Manure,,,8.35,Swine manure,,1.7369735,,Physical,28.94
Manure,,,8.22,Swine manure,,1.5455498,,Physical,21.28
Manure,,,8.2,Swine manure,,1.4885897,,Physical,17.39
Manure,,65.4,7.1,Swine manure,,1.4,,,21.4
Manure,,,,Swine manure,,,,Biological,20.7
Manure,,64.9,6.9,Swine manure,,3.4,,,18.4
Manure,,,,Swine manure,,,,Biological,19.7
Manure,15.4166666666667,65.0,6.82846,Swine manure,,2.4,37.0,,26.0
Manure,,,6.00631,Swine manure,,,,Physical,11.8
Manure,,,6.2,Swine manure,,,,Physical,21.5
Manure,,,6.1,Swine manure,,,,Physical,20.2
Food waste,20.5,63.5,6.03,,,,,,12.86
Food waste,,,6.0,,,,,Chemical,10.23
Food waste,28.8,43.61,4.92,,,2.33,49.43,,50.9
Food waste,,,,,,2.33,,Physical,9.87
Sewage sludge,25.0,55.0,7.4,,,2.32,45.81,,1.02
Sewage sludge,,,7.8,,,,,Physical,0.2
Sewage sludge,,,7.8,,,,,Physical,0.11
Sewage sludge,,,8.0,,,,,Physical,0.11
Sewage sludge,,,8.0,,,,,Physical,0.06
Sewage sludge,,,8.1,,,,,Physical,0.04
Sewage sludge,,,8.2,,,,,Physical,0.02
Food waste,17.0,66.0,6.35433,,,3.16470588235294,53.8,,21.2
Food waste,,,7.07177,,,,,Chemical,32.8
Food waste,,,5.79375,,,,,Chemical,12.6
Food waste,,,5.2108,,,,,Chemical,3.5
,,80.7,,,,0.82,,,11.4
,,,,,,0.9,,Physical,8.13793103448276
,,,,,,0.95,,Chemical,4.22508196721311
,,,,,,0.83,,Mixture,7.9278
Manure,,50.0,8.3,Cow manure,,1.52,,,23.3720930232558
Manure,,,7.2,Cow manure,,,,Physical,14.4883720930233
Manure,,,,Cow manure,,,,Physical,16.2558139534884
Manure,,,8.2,Cow manure,,1.0,,,9.98214285714286
Manure,,,7.0,Cow manure,,,,Physical,13.0172413793103
Manure,,,,Cow manure,,,,Physical,11.7857142857143
Manure,,,7.7,Cow manure,,0.85,,,6.04166666666667
Manure,,,6.7,Cow manure,,,,Physical,14.4897959183673
Manure,,,,Cow manure,,,,Physical,10.1875
Manure,18.4,69.2,8.25,Swine manure,,2.0,37.48,,32.5
Manure,,,8.03437,Swine manure,,,,Chemical,14.5
Manure,,,7.9795,Swine manure,,,,Chemical,16.0
Manure,,,8.11649,Swine manure,,,,Chemical,13.3
Manure,,,6.85618,Swine manure,,,,Chemical,5.9
Manure,12.8440366972477,65.03,7.88,Poultry manure,,2.18,28.0,,23.3759
Manure,,63.17,7.88,Poultry manure,,1.9,,Physical,17.5215
Manure,,62.39,7.7,Poultry manure,,1.8,,Physical,21.2503
Manure,,62.6,7.88,Poultry manure,,1.8,,Physical,18.7578
Manure,,61.97,7.88,Poultry manure,,2.05,,Physical,19.4581
Manure,,63.43,7.88,Poultry manure,,1.8,,Physical,20.6637
Manure,23.936170212766,58.1,8.18689,Swine manure,,1.88,45.0,,20.3
Manure,,,8.07761,Swine manure,,,,Physical,13.82
Manure,,,8.02036,Swine manure,,,,Physical,10.57
Manure,,,7.92272,Swine manure,,,,Physical,9.8
Manure,17.5789473684211,65.0,7.28,Swine manure,,1.9,33.4,,1.6
Manure,,,6.6,Swine manure,,,,Physical,1.184
Manure,,,6.58,Swine manure,,,,Physical,0.864
Manure,,,6.35,Swine manure,,,,Physical,0.688
Manure,,,7.05,Swine manure,,,,Chemical,0.848
Manure,19.91,62.06,7.5,Swine manure,,1.96,38.8245,,13.18
Manure,18.23,58.69,7.75,Swine manure,,1.29,35.68,Physical,11.36
Food waste,32.46,53.59,,,,1.1,35.52,,32.7
Food waste,,,,,,,,Biological,20.3721
Food waste,,,,,,,,Biological,30.0186
Manure,22.4615384615385,65.0,7.56,Swine manure,,1.69,37.96,,26.82
Manure,,,8.03,Swine manure,,1.51,37.7,Physical,21.65
Manure,,,8.17,Swine manure,,1.41,37.34,Physical,7.31
Manure,,,8.33,Swine manure,,1.35,40.35,Physical,5.47
Manure,18.9754901960784,67.6,7.8,Swine manure,,2.04,38.71,,29.26
Manure,,,6.7,Swine manure,,,,Physical,16.11
Manure,,,8.0,Swine manure,,,,Physical,30.93
Manure,,,7.2,Swine manure,,,,Chemical,16.12
Manure,19.25,60.0,7.1,Swine manure,,2.0,38.5,,24.95
Manure,,,6.6,Swine manure,,,,Chemical,11.23
Manure,,,6.7,Swine manure,,,,Chemical,22.85
Manure,,,8.35,Swine manure,,,,Chemical,26.71
Sewage sludge,,,7.78,,,,,,31.52
Sewage sludge,,,,,,,,Physical,21.26
Manure,18.3725490196078,69.2,8.2,Swine manure,,2.04,37.48,,32.5
Manure,,,8.0,Swine manure,,,,Chemical,14.5
Manure,,,7.25,Swine manure,,,,Physical,20.3
Manure,,,6.75,Swine manure,,,,Chemical,12.4
Manure,16.45,65.0,,Swine manure,,2.356,38.7562,,13.8
Manure,,,,Swine manure,,,,Physical,4.8
Manure,,,,Swine manure,,,,Physical,10.0
Manure,30.0,60.0,6.53,Poultry manure,,,,,36.3
Manure,,,6.85,Poultry manure,,,,Physical,33.2
Manure,,,6.46,Poultry manure,,,,Physical,26.6
Manure,,,6.52,Poultry manure,,,,Physical,20.4
Manure,,,6.5,Poultry manure,,,,Physical,14.9
Manure,,,6.55,Poultry manure,,,,Physical,10.7
Manure,25.0,55.0,7.75,Swine manure,,2.084,52.1,,2.5
Manure,,,8.2,Swine manure,,,,Physical,1.55
Manure,,,,Swine manure,,,,Physical,0.87
Sewage sludge,33.5,67.6,6.1,,,1.46,42.91,,8.7
Sewage sludge,33.5245901639344,67.3,7.65,,,1.22,40.9,Chemical,7.87
Sewage sludge,33.1129032258065,66.8,6.7,,,1.24,41.06,Chemical,6.6
Sewage sludge,31.530303030303,66.0,6.43,,,1.32,41.62,Chemical,3.5
Food waste,20.22,,5.34,,,,,,13.5
Food waste,21.53,,5.47,,,,,Chemical,8.8
Food waste,25.18,,5.14,,,,,Chemical,7.9
Food waste,24.82,,5.22,,,,,,12.7
Manure,26.7620561738209,60.0,7.8,Poultry manure,Cereal chaff,1.2,32.1144674085851,,8.8
Manure,2.90159278923324,60.0,7.8,Poultry manure,Cereal chaff,10.4,30.1765650080257,Physical,8.6
Manure,2.53674592815391,60.0,7.8,Poultry manure,Cereal chaff,13.4,33.9923954372624,Physical,6.4
Manure,,,7.6,Cow manure,Corn straw,,,,44.47
Manure,,,7.6,Cow manure,Corn straw,,,Physical,16.74
Manure,,,7.6,Cow manure,Corn straw,,,Physical,10.03
Manure,,,,Swine manure,Wheat straw,,,,20.65
Manure,,,,Swine manure,Wheat straw,,,Biological,28.11
Manure,,,,Swine manure,Wheat straw,,,Physical,13.86
Manure,,,,Swine manure,Wheat straw,,,Mixture,19.21
Sewage sludge,11.3619402985075,72.1,7.72,,Corn straw,2.68,30.45,,29.52
Sewage sludge,11.3619402985075,72.1,7.72,,Corn straw,2.68,30.45,Chemical,24.68
Sewage sludge,11.3619402985075,72.1,7.72,,Corn straw,2.68,30.45,Chemical,21.16
Sewage sludge,11.3619402985075,72.1,7.72,,Corn straw,2.68,30.45,Mixture,32.03
Sewage sludge,11.3619402985075,72.1,7.72,,Corn straw,2.68,30.45,Mixture,22.91
Manure,19.9,59.81,7.3,Swine manure,Corn straw,1.91,38.1,,17.13
Manure,19.9,60.21,7.89,Swine manure,Spent mushroom substrate,1.79,35.6,,11.11
Sewage sludge,,,,,Sawdust ,,,,13.6
Sewage sludge,,,,,Sawdust ,,,Biological,18.06
Sewage sludge,,,,,Sawdust ,,,Biological,13.51
Sewage sludge,,,,,Sawdust ,,,Biological,14.29
Manure,30.0,60.0,6.53,Poultry manure,Wheat straw,,,,36.3
Manure,30.0,60.0,6.85,Poultry manure,Wheat straw,,,Physical,33.2
Manure,30.0,60.0,6.46,Poultry manure,Wheat straw,,,Physical,26.6
Manure,30.0,60.0,6.52,Poultry manure,Wheat straw,,,Physical,20.4
Manure,30.0,60.0,6.5,Poultry manure,Wheat straw,,,Physical,14.9
Manure,30.0,60.0,6.55,Poultry manure,Wheat straw,,,Physical,10.7
Lignin,23.8,,8.2,,Straw,1.79,42.59,,29.8
Lignin,30.6,,8.4,,Straw,4.45,44.38,,22.8
Food waste,22.1,60.0,5.01,,Corn stalks ,1.79,39.6,,13.3
Food waste,18.2,60.0,4.43,,Corn stalks ,1.98,36.0,Chemical,8.4
Food waste,19.1,60.0,4.28,,Corn stalks ,1.89,36.0,Chemical,10.5
Manure,17.3,,,Swine manure,Corn stalk,2.12,36.7,,18.5
Manure,17.3,,,Swine manure,Corn stalk,2.12,36.7,,20.0
Manure,17.3,,,Swine manure,Corn stalk,2.12,36.7,,31.5
Manure,17.3,,,Swine manure,Corn stalk,2.12,36.7,,40.1
Manure,17.3,,,Swine manure,Corn stalk,2.12,36.7,,25.3
Food waste,,,,,,,,,22.0
Food waste,,,,,Corn stalk,,,,20.0
Food waste,,,,,Sawdust ,,,,21.0
Food waste,,,,,Spend mush room residue,,,,22.0
Manure,,,,Swine manure,Cornstalks,2.17,38.76,,29.1
Manure,,,,Swine manure,Cornstalks,1.96,36.72,Chemical,22.8
Manure,,,,Swine manure,Cornstalks,2.06,36.53,Mixture,21.6
Manure,,,,Swine manure,Cornstalks,2.1,37.4,Mixture,24.6
Manure,14.7,64.1,,Swine manure,Cornstalk,2.36,34.8,,13.9
Manure,18.4,71.3,,Swine manure,Cornstalk,2.06,38.0,,12.7
Manure,21.2,75.7,,Swine manure,Cornstalk,1.93,40.9,,9.6
Manure,18.3,65.2,,Swine manure,Cornstalk,2.08,38.0,,18.7
Manure,21.1,70.6,,Swine manure,Cornstalk,1.9,40.1,,16.9
Manure,14.9,76.8,,Swine manure,Cornstalk,2.37,35.3,,27.7
Manure,20.7,63.7,,Swine manure,Cornstalk,1.9,39.4,,20.6
Manure,15.0,70.8,,Swine manure,Cornstalk,2.35,35.2,,32.4
Manure,18.0,74.0,,Swine manure,Cornstalk,2.09,37.6,,24.9
Manure,18.4,69.2,,Swine manure,Cornstalk,2.04,37.48,,32.5
Manure,18.4,69.2,,Swine manure,Cornstalk,2.04,37.48,Chemical,14.5
Manure,18.4,69.2,,Swine manure,Cornstalk,2.04,37.48,Chemical,16.0
Manure,18.4,69.2,,Swine manure,Cornstalk,2.04,37.48,Chemical,13.3
Manure,18.4,69.2,,Swine manure,Cornstalk,2.04,37.48,Chemical,5.9
Manure,,,,Swine manure,Wheat straw,,,,11.4
Manure,,,,Swine manure,Wheat straw,,,Chemical,10.1
Manure,,,,Swine manure,Wheat straw,,,Chemical,9.0
Manure,,,,Swine manure,Wheat straw,,,,20.5
Manure,,,,Swine manure,Wheat straw,,,Biological,16.4
Manure,,,,Swine manure,Wheat straw,,,Biological,15.7
Manure,22.0062680470267,71.66,9.19,Cow manure,,,,,5.37
Manure,35.45,75.16,8.0,Cow manure,,,,,2.589
Manure,26.03,60.0,7.25,Poultry manure,糠醛渣,,,,21.77
Manure,20.0,65.7,8.6,Swine manure,玉米秸秆,,,,13.58
Manure,20.0,65.7,8.6,Swine manure,玉米秸秆,,,,12.93
Manure,20.0,65.7,8.6,Swine manure,玉米秸秆,,,,12.35
Manure,22.46,65.0,7.56,Swine manure,水稻秸秆,,,,26.82
Manure,13.16,69.47,7.13,Swine manure,玉米秸秆,,,,23.81
Manure,21.9,66.0,,Cow manure,锯末,,,,12.59
Manure,21.9,66.0,,Cow manure,锯末,,,,16.16
Manure,21.9,66.0,,Cow manure,锯末,,,,17.44
Manure,17.4,64.0,7.4,Swine manure,玉米秸秆,,,,29.5
Manure,17.4,64.0,7.4,Swine manure,玉米秸秆,,,,27.9
Manure,17.4,64.0,7.4,Swine manure,玉米秸秆,,,,12.8
Sewage sludge,11.37,65.0,7.8,,玉米秸秆,,,,31.52
Manure,15.39,60.0,6.54,Swine manure,蘑菇渣,,,,4.51
Manure,15.39,60.0,6.54,Swine manure,蘑菇渣,,,,2.502
Sewage sludge,7.73,64.83,8.25,,蘑菇渣,,,,4.44
Sewage sludge,8.54,57.48,8.22,,蘑菇渣,,,,2.18
Sewage sludge,11.37,72.1,7.78,,玉米秸秆,,,,21.16
Manure,29.3,60.0,7.82,Swine manure,锯末,,,,3.462
Manure,18.99,67.7,,Swine manure,玉米秸秆,,,,35.7
Manure,25.0,60.0,6.5,Poultry manure,小麦秸秆,,,,36.3
Sewage sludge,47.48,65.0,7.2,,小麦秸秆,,,,7.3
Manure,25.0,60.0,7.7,Swine manure,小麦秸秆,,,,2.48
Manure,,74.0,7.9,Cow manure,水稻秸秆,,,,8.12
Manure,,74.0,7.9,Cow manure,水稻秸秆,,,,16.56
Manure,,74.0,7.9,Cow manure,水稻秸秆,,,,22.51
Manure,,66.7,,Cow manure,水稻秸秆,,,,8.1
Manure,,66.7,,Cow manure,水稻秸秆,,,,9.88
Manure,20.0,65.0,7.1,Poultry manure,秸秆+草皮,,,,0.0354
Manure,20.0,65.0,7.1,Poultry manure,秸秆+草皮,,,,8.86
Manure,20.0,65.0,7.1,Poultry manure,秸秆+草皮,,,,16.48
Manure,6.53,77.53,6.2,Swine manure,,,,,2.6
Manure,6.81,66.71,7.01,Swine manure,蘑菇渣,,,,1.2
Manure,9.22,66.36,7.41,Swine manure,蘑菇渣,,,,0.55
Manure,7.35,67.68,7.59,Swine manure,蘑菇渣+沼渣,,,,0.15
Manure,7.24,66.26,8.04,Swine manure,蘑菇渣+沼渣+芦苇屑+烟梗,,,,0.25
Sewage sludge,19.11,72.13,5.67,,木屑,,,,18.97
Sewage sludge,13.27,69.74,7.56,,小麦秸秆,,,,13.82
Sewage sludge,13.56,71.05,8.08,,稻壳,,,,11.66
Sewage sludge,13.9,72.0,7.4,,稻壳,,,,0.612
Sewage sludge,13.56,71.05,8.08,,稻壳,,,,12.53
Sewage sludge,4.43,50.0,7.6,,,,,,1.447
Sewage sludge,4.43,60.0,7.9,,,,,,3.0045
Sewage sludge,4.43,70.0,5.1,,,,,,0.9396
Manure,17.8,63.0,8.55,Swine manure,玉米秸秆,,,,38.09
Manure,17.8,63.0,8.55,Swine manure,玉米秸秆,,,,36.38
Manure,17.8,63.0,8.55,Swine manure,玉米秸秆,,,,30.88
Manure,17.1,64.0,7.4,Swine manure,玉米秸秆,,,,26.19
Manure,17.1,64.0,7.4,Swine manure,玉米秸秆,,,,24.09
Manure,17.1,64.0,7.4,Swine manure,玉米秸秆,,,,15.77
Manure,14.0,61.43,6.62,Swine manure,水稻秸秆,,,,30.28
Manure,14.0,65.75,7.06,Swine manure,水稻秸秆,,,,28.22
Manure,14.93,65.59,8.48,Cow manure,水稻秸秆,,,,5.2
Manure,14.43,76.09,7.74,Cow manure,水稻秸秆,,,,2.24
Manure,15.0,40.0,6.72,Swine manure,玉米秸秆,,,,3.37
Manure,15.0,60.0,6.76,Swine manure,玉米秸秆,,,,3.17
Manure,15.0,80.0,6.63,Swine manure,玉米秸秆,,,,6.45
Manure,15.0,60.0,6.82,Swine manure,玉米秸秆,,,,3.13
Manure,15.0,60.0,,Swine manure,玉米秸秆,,,,18.35
Manure,20.0,60.0,,Swine manure,玉米秸秆,,,,20.72
Manure,25.0,60.0,,Swine manure,玉米秸秆,,,,25.05
Manure,30.0,60.0,,Swine manure,玉米秸秆,,,,25.95
Food waste,25.0,66.9,5.75,,,,,,34.9
Food waste,20.9,58.6,5.36,,菌糠,,,,18.2
Food waste,18.7,53.1,5.13,,菌糠,,,,6.5
Food waste,16.8,47.5,5.04,,菌糠,,,,1.4
Manure,30.0,60.0,7.2,Swine manure,木屑,,,,0.258
Manure,18.15,80.89,7.47,Cow manure,,,,,16.06
Manure,16.49,80.82,7.42,Cow manure,,,,,7.55
Sewage sludge,19.0,50.0,,,蘑菇渣,,,,1.48
Sewage sludge,20.16,62.0,7.41,,稻壳,,,,7.558
Sewage sludge,19.16,62.83,7.35,,稻壳+菌糠,,,,7.506
Sewage sludge,17.17,61.92,7.55,,稻壳+糖渣,,,,4.7645
Sewage sludge,17.17,63.0,,,稻壳+糖渣,,,,3.025
Sewage sludge,17.17,55.0,,,稻壳+糖渣,,,,3.96
Sewage sludge,17.17,48.0,,,稻壳+糖渣,,,,6.2569
Manure,9.89,73.67,8.0,Poultry manure,木屑,,,,13.53
Manure,15.4,80.3,7.6,Swine manure,,,,,35.57
Manure,28.3,70.4,7.38,Swine manure,稻草,,,,28.528
Manure,30.2,71.6,7.42,Swine manure,油菜秸秆,,,,35.48
Manure,24.7,70.1,7.42,Swine manure,菌渣,,,,16.37
Manure,15.0,65.0,7.6,Swine manure,玉米秸秆,,,,28.0
Manure,51.5,61.7,7.87,Cow manure,锯末,,,,6.8
Manure,13.0,65.9,6.2,Swine manure,小麦秸秆,,,,1.0067
Manure,12.9,65.0,6.5,Swine manure,小麦秸秆,,,,3.0
Manure,11.0,69.0,,Swine manure,,,,,13.0
Manure,14.7,65.0,,Swine manure,木屑,,,,10.2
Manure,12.9,67.0,,Swine manure,木屑,,,,10.5
Manure,14.0,65.0,,Swine manure,大麦秸秆,,,,9.0
Manure,16.5,83.0,8.4,Cow manure,大麦秸秆,,,,6.0
Manure,16.5,83.0,8.4,Cow manure,大麦秸秆,,,,0.07
Manure,6.1,71.0,6.7,Poultry manure,大麦秸秆,,,,26.5
Manure,6.1,71.0,6.7,Poultry manure,大麦秸秆,,,,17.5
Sewage sludge,11.37,72.1,7.78,,玉米秸秆,,,,18.4
Sewage sludge,11.37,72.1,7.78,,玉米秸秆,,,,21.2
Sewage sludge,11.37,72.1,7.78,,玉米秸秆,,,,19.1
Sewage sludge,25.0,55.0,7.3,,小麦秸秆,,,,2.72
Manure,24.8,52.2,8.6,Swine manure,玉米秸秆,,,,38.7
Sewage sludge,11.5,62.1,7.63,,锯末,,,,29.42
Sewage sludge,12.8,63.4,5.45,,锯末+葡萄糖,,,,18.38
Sewage sludge,12.9,62.6,5.23,,锯末+蔗糖,,,,18.09
Sewage sludge,12.9,63.4,7.52,,锯末+稻草,,,,28.35
Sewage sludge,13.8,61.8,5.31,,锯末+葡萄糖+稻草,,,,20.67
Sewage sludge,14.15,62.4,6.14,,锯末+蔗糖+稻草,,,,13.88
Food waste,31.8,66.9,5.6,,,,,,22.0
Food waste,31.5,57.58,6.6,,玉米秸秆,,,,20.0
Food waste,32.5,57.78,6.5,,锯末,,,,21.0
Food waste,22.5,58.6,6.2,,蘑菇渣,,,,22.0
Manure,23.6,66.6,,Cow manure,,,,,9.0
Manure,23.1,66.9,,Cow manure,,,,,13.0
Manure,8.4,45.0,,Poultry manure,,,,,24.0
Manure,7.7,66.7,,Poultry manure,,,,,19.0
Manure,9.3,44.0,,Poultry manure,,,,,16.0
Manure,7.8,65.8,,Poultry manure,,,,,10.0
Manure,13.0,62.0,8.4,Swine manure,稻草,,,,3.9
Manure,7.0,62.0,8.4,Swine manure,稻草,,,,2.4
Manure,26.85,85.5,,Cow manure,稻草,,,,14.7
Manure,19.22,84.3,,Cow manure,稻草,,,,4.19
Manure,26.91,81.2,,Cow manure,稻草,,,,8.75
Manure,22.18,83.1,,Cow manure,稻草,,,,11.11
Manure,19.6,84.7,,Cow manure,稻草,,,,8.69
Manure,29.0,69.4,8.8,Swine manure,小麦秸秆,,,,16.5
Manure,24.7,71.1,9.1,Swine manure,小麦秸秆+尿素,,,,27.5
Manure,17.6,71.2,8.8,Swine manure,小麦秸秆+尿素,,,,38.7
Manure,19.0,67.6,9.0,Swine manure,小麦秸秆+尿素,,,,48.9
Manure,19.5,69.2,8.6,Swine manure,小麦秸秆+尿素,,,,36.2
Manure,21.2,71.0,9.2,Swine manure,小麦秸秆+尿素+锯末,,,,47.9
Manure,19.6,70.3,7.5,Swine manure,小麦秸秆+尿素+甜菜渣,,,,24.8
Manure,19.5,71.8,8.4,Swine manure,小麦秸秆+甜菜渣+尿素+锯末,,,,24.9
Sewage sludge,13.0,61.8,7.1,,木屑,,,,0.04
Sewage sludge,11.0,62.4,7.6,,木屑,,,,0.23
Manure,24.8,72.5,,Cow manure,小麦秸秆,,,,11.0
Manure,24.8,72.5,,Cow manure,小麦秸秆,,,,18.0
Manure,22.3,74.8,,Cow manure,小麦秸秆,,,,1.0
Manure,22.3,74.8,,Cow manure,小麦秸秆,,,,2.0
Manure,,68.0,8.1,Swine manure,锯末,,,,11.28
Manure,,68.0,8.1,Swine manure,锯末,,,,12.74
Manure,18.28,65.8,7.17,Swine manure,木屑,,,,9.19
Manure,24.03,67.3,7.94,Swine manure,木屑,,,,12.58
Manure,15.0,65.0,8.6,Swine manure,玉米秸秆,,,,13.9
Manure,18.0,65.0,8.5,Swine manure,玉米秸秆,,,,18.7
Manure,21.0,65.0,8.3,Swine manure,玉米秸秆,,,,20.6
Manure,18.0,70.0,8.5,Swine manure,玉米秸秆,,,,12.7
Manure,21.0,70.0,8.3,Swine manure,玉米秸秆,,,,16.9
Manure,15.0,70.0,8.7,Swine manure,玉米秸秆,,,,32.4
Manure,21.0,75.0,8.4,Swine manure,玉米秸秆,,,,9.6
Manure,15.0,75.0,8.6,Swine manure,玉米秸秆,,,,27.7
Manure,18.0,75.0,8.6,Swine manure,玉米秸秆,,,,24.9
Manure,18.18,62.3,,Cow manure,稻草,,,,14.9
Manure,21.59,64.2,,Cow manure,稻草,,,,7.2
Manure,,64.6,7.4,Swine manure,锯末,,,,9.82